# Time	Down	Side	Table
0	20.1	19.6	25.3
10	23.5	19.9	25.2
20	27.9	24.1	25.4
30	31.2	24.0	25.4
40	34.4	24.3	25.0
50	37.3	24.8	25.2
60	39.5	24.8	25.3
